# Field minima and maxima
# Time        	field         	min           	location(min) 	max           	location(max) 
0.01          	T             	2.993905e+02	(5.629355e+02 1.767136e+02 -1.622023e+03)	1.020682e+03	(5.913896e+02 1.035441e+02 -1.631613e+03)
0.02          	T             	2.994389e+02	(5.629355e+02 1.767136e+02 -1.622023e+03)	1.399905e+03	(5.913896e+02 1.035441e+02 -1.631613e+03)
0.03          	T             	2.994603e+02	(5.792674e+02 1.012219e+02 -1.603422e+03)	1.597975e+03	(5.913896e+02 1.035441e+02 -1.631613e+03)
0.04          	T             	2.995815e+02	(5.792674e+02 1.012219e+02 -1.603422e+03)	1.703490e+03	(5.913896e+02 1.035441e+02 -1.631613e+03)
0.05          	T             	2.997669e+02	(5.507107e+02 2.094347e+02 -1.627215e+03)	1.762817e+03	(5.913896e+02 1.035441e+02 -1.631613e+03)
0.06          	T             	2.997482e+02	(5.507107e+02 2.094347e+02 -1.627215e+03)	1.798663e+03	(5.913896e+02 1.035441e+02 -1.631613e+03)
0.07          	T             	2.997477e+02	(5.571675e+02 1.863357e+02 -1.625375e+03)	1.823190e+03	(5.913896e+02 1.035441e+02 -1.631613e+03)
0.08          	T             	2.997190e+02	(5.571915e+02 1.803931e+02 -1.623525e+03)	1.840971e+03	(5.913896e+02 1.035441e+02 -1.631613e+03)
0.09          	T             	2.996923e+02	(5.571915e+02 1.803931e+02 -1.623525e+03)	1.855097e+03	(5.913896e+02 1.035441e+02 -1.631613e+03)
0.1           	T             	2.996713e+02	(5.571915e+02 1.803931e+02 -1.623525e+03)	1.867099e+03	(5.913896e+02 1.035441e+02 -1.631613e+03)
0.11          	T             	2.996566e+02	(5.571915e+02 1.803931e+02 -1.623525e+03)	1.877717e+03	(5.913896e+02 1.035441e+02 -1.631613e+03)
0.12          	T             	2.996481e+02	(5.571915e+02 1.803931e+02 -1.623525e+03)	1.887336e+03	(5.913896e+02 1.035441e+02 -1.631613e+03)
0.13          	T             	2.996460e+02	(5.571915e+02 1.803931e+02 -1.623525e+03)	1.896174e+03	(5.913896e+02 1.035441e+02 -1.631613e+03)
0.14          	T             	2.996501e+02	(5.571915e+02 1.803931e+02 -1.623525e+03)	1.904363e+03	(5.913896e+02 1.035441e+02 -1.631613e+03)
0.15          	T             	2.996604e+02	(5.571915e+02 1.803931e+02 -1.623525e+03)	1.911885e+03	(5.913896e+02 1.035441e+02 -1.631613e+03)
0.16          	T             	2.996768e+02	(5.571915e+02 1.803931e+02 -1.623525e+03)	1.918810e+03	(5.913896e+02 1.035441e+02 -1.631613e+03)
0.17          	T             	2.996989e+02	(5.571915e+02 1.803931e+02 -1.623525e+03)	1.925310e+03	(5.913896e+02 1.035441e+02 -1.631613e+03)
0.18          	T             	2.997267e+02	(5.571915e+02 1.803931e+02 -1.623525e+03)	1.931474e+03	(5.913896e+02 1.035441e+02 -1.631613e+03)
0.19          	T             	2.997599e+02	(5.571915e+02 1.803931e+02 -1.623525e+03)	1.937357e+03	(5.913896e+02 1.035441e+02 -1.631613e+03)
0.2           	T             	2.997984e+02	(5.571915e+02 1.803931e+02 -1.623525e+03)	1.942994e+03	(5.913896e+02 1.035441e+02 -1.631613e+03)
0.21          	T             	2.998417e+02	(5.571915e+02 1.803931e+02 -1.623525e+03)	1.948411e+03	(5.913896e+02 1.035441e+02 -1.631613e+03)
0.22          	T             	2.998899e+02	(5.571915e+02 1.803931e+02 -1.623525e+03)	1.953629e+03	(5.913896e+02 1.035441e+02 -1.631613e+03)
0.23          	T             	2.999426e+02	(5.571915e+02 1.803931e+02 -1.623525e+03)	1.958666e+03	(5.913896e+02 1.035441e+02 -1.631613e+03)
0.24          	T             	2.999700e+02	(5.439190e+02 2.094610e+02 -1.621828e+03)	1.963536e+03	(5.913896e+02 1.035441e+02 -1.631613e+03)
0.25          	T             	2.999719e+02	(5.503114e+02 1.863334e+02 -1.628465e+03)	1.968254e+03	(5.913896e+02 1.035441e+02 -1.631613e+03)
0.26          	T             	2.999731e+02	(5.503114e+02 1.863334e+02 -1.628465e+03)	1.972832e+03	(5.913896e+02 1.035441e+02 -1.631613e+03)
0.27          	T             	2.999750e+02	(5.503114e+02 1.863334e+02 -1.628465e+03)	1.977280e+03	(5.913896e+02 1.035441e+02 -1.631613e+03)
0.28          	T             	2.999774e+02	(5.503114e+02 1.863334e+02 -1.628465e+03)	1.981609e+03	(5.913896e+02 1.035441e+02 -1.631613e+03)
0.29          	T             	2.999806e+02	(5.503114e+02 1.863334e+02 -1.628465e+03)	1.985827e+03	(5.913896e+02 1.035441e+02 -1.631613e+03)
0.3           	T             	2.999845e+02	(5.503114e+02 1.863334e+02 -1.628465e+03)	1.989942e+03	(5.913896e+02 1.035441e+02 -1.631613e+03)
0.31          	T             	2.999891e+02	(5.503114e+02 1.863334e+02 -1.628465e+03)	1.993961e+03	(5.913896e+02 1.035441e+02 -1.631613e+03)
0.32          	T             	2.999945e+02	(5.503114e+02 1.863334e+02 -1.628465e+03)	1.997889e+03	(5.913896e+02 1.035441e+02 -1.631613e+03)
0.33          	T             	2.999998e+02	(5.434188e+02 1.802866e+02 -1.630370e+03)	2.001732e+03	(5.913896e+02 1.035441e+02 -1.631613e+03)
0.34          	T             	2.999999e+02	(5.434188e+02 1.802866e+02 -1.630370e+03)	2.005449e+03	(5.913896e+02 1.035441e+02 -1.631613e+03)
0.35          	T             	2.999999e+02	(5.434188e+02 1.802866e+02 -1.630370e+03)	2.009022e+03	(5.913896e+02 1.035441e+02 -1.631613e+03)
0.36          	T             	2.999999e+02	(5.367888e+02 2.187003e+02 -1.604885e+03)	2.012504e+03	(5.913896e+02 1.035441e+02 -1.631613e+03)
0.37          	T             	2.999999e+02	(5.367888e+02 2.187003e+02 -1.604885e+03)	2.015886e+03	(5.913896e+02 1.035441e+02 -1.631613e+03)
0.38          	T             	2.999999e+02	(5.367888e+02 2.187003e+02 -1.604885e+03)	2.019159e+03	(5.913896e+02 1.035441e+02 -1.631613e+03)
0.39          	T             	2.999999e+02	(5.367888e+02 2.187003e+02 -1.604885e+03)	2.022334e+03	(5.913896e+02 1.035441e+02 -1.631613e+03)
0.4           	T             	2.999999e+02	(5.367888e+02 2.187003e+02 -1.604885e+03)	2.025426e+03	(5.913896e+02 1.035441e+02 -1.631613e+03)
0.41          	T             	2.999999e+02	(5.367888e+02 2.187003e+02 -1.604885e+03)	2.028448e+03	(5.913896e+02 1.035441e+02 -1.631613e+03)
0.42          	T             	2.999999e+02	(5.367888e+02 2.187003e+02 -1.604885e+03)	2.031409e+03	(5.913896e+02 1.035441e+02 -1.631613e+03)
0.43          	T             	2.999999e+02	(5.367888e+02 2.187003e+02 -1.604885e+03)	2.034314e+03	(5.913896e+02 1.035441e+02 -1.631613e+03)
0.44          	T             	2.999999e+02	(5.367888e+02 2.187003e+02 -1.604885e+03)	2.037168e+03	(5.913896e+02 1.035441e+02 -1.631613e+03)
0.45          	T             	2.999999e+02	(5.367888e+02 2.187003e+02 -1.604885e+03)	2.039975e+03	(5.913896e+02 1.035441e+02 -1.631613e+03)
0.46          	T             	3.000000e+02	(5.367888e+02 2.187003e+02 -1.604885e+03)	2.042736e+03	(5.913896e+02 1.035441e+02 -1.631613e+03)
0.47          	T             	3.000000e+02	(5.367888e+02 2.187003e+02 -1.604885e+03)	2.045456e+03	(5.913896e+02 1.035441e+02 -1.631613e+03)
0.48          	T             	3.000000e+02	(5.362413e+02 1.737143e+02 -1.638054e+03)	2.048136e+03	(5.913896e+02 1.035441e+02 -1.631613e+03)
0.49          	T             	3.000000e+02	(5.362413e+02 1.737143e+02 -1.638054e+03)	2.050777e+03	(5.913896e+02 1.035441e+02 -1.631613e+03)
0.5           	T             	3.000000e+02	(5.362413e+02 1.737143e+02 -1.638054e+03)	2.053381e+03	(5.913896e+02 1.035441e+02 -1.631613e+03)
0.51          	T             	3.000000e+02	(5.362413e+02 1.737143e+02 -1.638054e+03)	2.055947e+03	(5.913896e+02 1.035441e+02 -1.631613e+03)
0.52          	T             	3.000000e+02	(5.362413e+02 1.737143e+02 -1.638054e+03)	2.058479e+03	(5.913896e+02 1.035441e+02 -1.631613e+03)
0.53          	T             	3.000000e+02	(5.362413e+02 1.737143e+02 -1.638054e+03)	2.060976e+03	(5.913896e+02 1.035441e+02 -1.631613e+03)
0.54          	T             	3.000000e+02	(5.362413e+02 1.737143e+02 -1.638054e+03)	2.063441e+03	(5.913896e+02 1.035441e+02 -1.631613e+03)
0.55          	T             	3.000000e+02	(5.362413e+02 1.737143e+02 -1.638054e+03)	2.065875e+03	(5.913896e+02 1.035441e+02 -1.631613e+03)
0.56          	T             	3.000000e+02	(5.241164e+02 2.036852e+02 -1.638681e+03)	2.068278e+03	(5.913896e+02 1.035441e+02 -1.631613e+03)
0.57          	T             	3.000000e+02	(5.241164e+02 2.036852e+02 -1.638681e+03)	2.070652e+03	(5.913896e+02 1.035441e+02 -1.631613e+03)
0.58          	T             	3.000000e+02	(5.241164e+02 2.036852e+02 -1.638681e+03)	2.072999e+03	(5.913896e+02 1.035441e+02 -1.631613e+03)
0.59          	T             	3.000000e+02	(5.241164e+02 2.036852e+02 -1.638681e+03)	2.075321e+03	(5.913896e+02 1.035441e+02 -1.631613e+03)
0.6           	T             	3.000000e+02	(5.241164e+02 2.036852e+02 -1.638681e+03)	2.077620e+03	(5.913896e+02 1.035441e+02 -1.631613e+03)
0.61          	T             	3.000000e+02	(5.241164e+02 2.036852e+02 -1.638681e+03)	2.079900e+03	(5.913896e+02 1.035441e+02 -1.631613e+03)
0.62          	T             	3.000000e+02	(5.241164e+02 2.036852e+02 -1.638681e+03)	2.082157e+03	(5.913896e+02 1.035441e+02 -1.631613e+03)
0.63          	T             	3.000000e+02	(5.241164e+02 2.036852e+02 -1.638681e+03)	2.084393e+03	(5.913896e+02 1.035441e+02 -1.631613e+03)
0.64          	T             	3.000000e+02	(5.241164e+02 2.036852e+02 -1.638681e+03)	2.086607e+03	(5.913896e+02 1.035441e+02 -1.631613e+03)
0.65          	T             	3.000000e+02	(5.241164e+02 2.036852e+02 -1.638681e+03)	2.088799e+03	(5.913896e+02 1.035441e+02 -1.631613e+03)
0.66          	T             	3.000000e+02	(5.241164e+02 2.036852e+02 -1.638681e+03)	2.090969e+03	(5.913896e+02 1.035441e+02 -1.631613e+03)
0.67          	T             	3.000000e+02	(5.241164e+02 2.036852e+02 -1.638681e+03)	2.093117e+03	(5.913896e+02 1.035441e+02 -1.631613e+03)
0.68          	T             	3.000000e+02	(5.241164e+02 2.036852e+02 -1.638681e+03)	2.095243e+03	(5.913896e+02 1.035441e+02 -1.631613e+03)
0.69          	T             	3.000000e+02	(5.241268e+02 1.976423e+02 -1.638594e+03)	2.097349e+03	(5.913896e+02 1.035441e+02 -1.631613e+03)
0.7           	T             	3.000000e+02	(5.241268e+02 1.976423e+02 -1.638594e+03)	2.099435e+03	(5.913896e+02 1.035441e+02 -1.631613e+03)
0.71          	T             	3.000000e+02	(5.241268e+02 1.976423e+02 -1.638594e+03)	2.101499e+03	(5.913896e+02 1.035441e+02 -1.631613e+03)
0.72          	T             	3.000000e+02	(5.241268e+02 1.976423e+02 -1.638594e+03)	2.103500e+03	(5.913896e+02 1.035441e+02 -1.631613e+03)
0.73          	T             	3.000000e+02	(5.241268e+02 1.976423e+02 -1.638594e+03)	2.105448e+03	(5.913896e+02 1.035441e+02 -1.631613e+03)
0.74          	T             	3.000000e+02	(5.241268e+02 1.976423e+02 -1.638594e+03)	2.107365e+03	(5.913896e+02 1.035441e+02 -1.631613e+03)
0.75          	T             	3.000000e+02	(5.241268e+02 1.976423e+02 -1.638594e+03)	2.109259e+03	(5.913896e+02 1.035441e+02 -1.631613e+03)
0.76          	T             	3.000000e+02	(5.241268e+02 1.976423e+02 -1.638594e+03)	2.111136e+03	(5.913896e+02 1.035441e+02 -1.631613e+03)
0.77          	T             	3.000000e+02	(5.241268e+02 1.976423e+02 -1.638594e+03)	2.112995e+03	(5.913896e+02 1.035441e+02 -1.631613e+03)
0.78          	T             	3.000000e+02	(5.241268e+02 1.976423e+02 -1.638594e+03)	2.114839e+03	(5.913896e+02 1.035441e+02 -1.631613e+03)
0.79          	T             	3.000000e+02	(5.241268e+02 1.976423e+02 -1.638594e+03)	2.116667e+03	(5.913896e+02 1.035441e+02 -1.631613e+03)
0.8           	T             	3.000000e+02	(5.175754e+02 2.038322e+02 -1.634973e+03)	2.118479e+03	(5.913896e+02 1.035441e+02 -1.631613e+03)
0.81          	T             	3.000000e+02	(5.175754e+02 2.038322e+02 -1.634973e+03)	2.120272e+03	(5.913896e+02 1.035441e+02 -1.631613e+03)
0.82          	T             	3.000000e+02	(5.175754e+02 2.038322e+02 -1.634973e+03)	2.122048e+03	(5.913896e+02 1.035441e+02 -1.631613e+03)
0.83          	T             	3.000000e+02	(5.175754e+02 2.038322e+02 -1.634973e+03)	2.123806e+03	(5.913896e+02 1.035441e+02 -1.631613e+03)
0.84          	T             	3.000000e+02	(5.175754e+02 2.038322e+02 -1.634973e+03)	2.125549e+03	(5.913896e+02 1.035441e+02 -1.631613e+03)
0.85          	T             	3.000000e+02	(5.175754e+02 2.038322e+02 -1.634973e+03)	2.127276e+03	(5.913896e+02 1.035441e+02 -1.631613e+03)
0.86          	T             	3.000000e+02	(5.175754e+02 2.038322e+02 -1.634973e+03)	2.128988e+03	(5.913896e+02 1.035441e+02 -1.631613e+03)
0.87          	T             	3.000000e+02	(5.175754e+02 2.038322e+02 -1.634973e+03)	2.130686e+03	(5.913896e+02 1.035441e+02 -1.631613e+03)
0.88          	T             	3.000000e+02	(5.175754e+02 2.038322e+02 -1.634973e+03)	2.132371e+03	(5.913896e+02 1.035441e+02 -1.631613e+03)
0.89          	T             	3.000000e+02	(5.108711e+02 1.917453e+02 -1.636659e+03)	2.134042e+03	(5.913896e+02 1.035441e+02 -1.631613e+03)
0.9           	T             	3.000000e+02	(5.108711e+02 1.917453e+02 -1.636659e+03)	2.135699e+03	(5.913896e+02 1.035441e+02 -1.631613e+03)
0.91          	T             	3.000000e+02	(5.108711e+02 1.917453e+02 -1.636659e+03)	2.137344e+03	(5.913896e+02 1.035441e+02 -1.631613e+03)
0.92          	T             	3.000000e+02	(4.779573e+02 1.773219e+02 -1.640460e+03)	2.138976e+03	(5.913896e+02 1.035441e+02 -1.631613e+03)
0.93          	T             	3.000000e+02	(4.779573e+02 1.773219e+02 -1.640460e+03)	2.140596e+03	(5.913896e+02 1.035441e+02 -1.631613e+03)
0.94          	T             	3.000000e+02	(4.779573e+02 1.773219e+02 -1.640460e+03)	2.142204e+03	(5.913896e+02 1.035441e+02 -1.631613e+03)
0.95          	T             	3.000000e+02	(4.779573e+02 1.773219e+02 -1.640460e+03)	2.143800e+03	(5.913896e+02 1.035441e+02 -1.631613e+03)
0.96          	T             	3.000000e+02	(4.779573e+02 1.773219e+02 -1.640460e+03)	2.145384e+03	(5.913896e+02 1.035441e+02 -1.631613e+03)
0.97          	T             	3.000000e+02	(4.779573e+02 1.773219e+02 -1.640460e+03)	2.146956e+03	(5.913896e+02 1.035441e+02 -1.631613e+03)
0.98          	T             	3.000000e+02	(4.779573e+02 1.773219e+02 -1.640460e+03)	2.148517e+03	(5.913896e+02 1.035441e+02 -1.631613e+03)
0.99          	T             	3.000000e+02	(4.779573e+02 1.773219e+02 -1.640460e+03)	2.150068e+03	(5.913896e+02 1.035441e+02 -1.631613e+03)
1             	T             	3.000000e+02	(4.779573e+02 1.773219e+02 -1.640460e+03)	2.151607e+03	(5.913896e+02 1.035441e+02 -1.631613e+03)
1.01          	T             	3.000000e+02	(4.779573e+02 1.773219e+02 -1.640460e+03)	2.153135e+03	(5.913896e+02 1.035441e+02 -1.631613e+03)
1.02          	T             	3.000000e+02	(4.779573e+02 1.773219e+02 -1.640460e+03)	2.154653e+03	(5.913896e+02 1.035441e+02 -1.631613e+03)
1.03          	T             	3.000000e+02	(4.779573e+02 1.773219e+02 -1.640460e+03)	2.156161e+03	(5.913896e+02 1.035441e+02 -1.631613e+03)
1.04          	T             	3.000000e+02	(4.779573e+02 1.773219e+02 -1.640460e+03)	2.157659e+03	(5.913896e+02 1.035441e+02 -1.631613e+03)
1.05          	T             	3.000000e+02	(4.779573e+02 1.773219e+02 -1.640460e+03)	2.159146e+03	(5.913896e+02 1.035441e+02 -1.631613e+03)
1.06          	T             	3.000000e+02	(4.779573e+02 1.773219e+02 -1.640460e+03)	2.160624e+03	(5.913896e+02 1.035441e+02 -1.631613e+03)
1.07          	T             	3.000000e+02	(4.779573e+02 1.773219e+02 -1.640460e+03)	2.162092e+03	(5.913896e+02 1.035441e+02 -1.631613e+03)
1.08          	T             	3.000000e+02	(4.779573e+02 1.773219e+02 -1.640460e+03)	2.163551e+03	(5.913896e+02 1.035441e+02 -1.631613e+03)
1.09          	T             	3.000000e+02	(4.779573e+02 1.773219e+02 -1.640460e+03)	2.165000e+03	(5.913896e+02 1.035441e+02 -1.631613e+03)
1.1           	T             	3.000000e+02	(4.779573e+02 1.773219e+02 -1.640460e+03)	2.166440e+03	(5.913896e+02 1.035441e+02 -1.631613e+03)
1.11          	T             	3.000000e+02	(4.779573e+02 1.773219e+02 -1.640460e+03)	2.167871e+03	(5.913896e+02 1.035441e+02 -1.631613e+03)
1.12          	T             	3.000000e+02	(4.779573e+02 1.773219e+02 -1.640460e+03)	2.169293e+03	(5.913896e+02 1.035441e+02 -1.631613e+03)
1.13          	T             	3.000000e+02	(4.779573e+02 1.773219e+02 -1.640460e+03)	2.170706e+03	(5.913896e+02 1.035441e+02 -1.631613e+03)
1.14          	T             	3.000000e+02	(4.779573e+02 1.773219e+02 -1.640460e+03)	2.172111e+03	(5.913896e+02 1.035441e+02 -1.631613e+03)
1.15          	T             	3.000000e+02	(4.709326e+02 1.897515e+02 -1.645265e+03)	2.173507e+03	(5.913896e+02 1.035441e+02 -1.631613e+03)
1.16          	T             	3.000000e+02	(4.709326e+02 1.897515e+02 -1.645265e+03)	2.174894e+03	(5.913896e+02 1.035441e+02 -1.631613e+03)
1.17          	T             	3.000000e+02	(4.709326e+02 1.897515e+02 -1.645265e+03)	2.176274e+03	(5.913896e+02 1.035441e+02 -1.631613e+03)
1.18          	T             	3.000000e+02	(4.709326e+02 1.897515e+02 -1.645265e+03)	2.177645e+03	(5.913896e+02 1.035441e+02 -1.631613e+03)
1.19          	T             	3.000000e+02	(4.709326e+02 1.897515e+02 -1.645265e+03)	2.179008e+03	(5.913896e+02 1.035441e+02 -1.631613e+03)
1.2           	T             	3.000000e+02	(4.709326e+02 1.897515e+02 -1.645265e+03)	2.180363e+03	(5.913896e+02 1.035441e+02 -1.631613e+03)
1.21          	T             	3.000000e+02	(4.709326e+02 1.897515e+02 -1.645265e+03)	2.181711e+03	(5.913896e+02 1.035441e+02 -1.631613e+03)
1.22          	T             	3.000000e+02	(4.709326e+02 1.897515e+02 -1.645265e+03)	2.183050e+03	(5.913896e+02 1.035441e+02 -1.631613e+03)
1.23          	T             	3.000000e+02	(4.709326e+02 1.897515e+02 -1.645265e+03)	2.184381e+03	(5.913896e+02 1.035441e+02 -1.631613e+03)
1.24          	T             	3.000000e+02	(4.709326e+02 1.897515e+02 -1.645265e+03)	2.185705e+03	(5.913896e+02 1.035441e+02 -1.631613e+03)
1.25          	T             	3.000000e+02	(4.709326e+02 1.897515e+02 -1.645265e+03)	2.187021e+03	(5.913896e+02 1.035441e+02 -1.631613e+03)
1.26          	T             	3.000000e+02	(4.709326e+02 1.897515e+02 -1.645265e+03)	2.188329e+03	(5.913896e+02 1.035441e+02 -1.631613e+03)
1.27          	T             	3.000000e+02	(4.709326e+02 1.897515e+02 -1.645265e+03)	2.189630e+03	(5.913896e+02 1.035441e+02 -1.631613e+03)
1.28          	T             	3.000000e+02	(4.709326e+02 1.897515e+02 -1.645265e+03)	2.190923e+03	(5.913896e+02 1.035441e+02 -1.631613e+03)
1.29          	T             	3.000000e+02	(4.930208e+02 1.876378e+02 -1.613926e+03)	2.192210e+03	(5.913896e+02 1.035441e+02 -1.631613e+03)
1.3           	T             	3.000000e+02	(4.930208e+02 1.876378e+02 -1.613926e+03)	2.193489e+03	(5.913896e+02 1.035441e+02 -1.631613e+03)
1.31          	T             	3.000000e+02	(4.930208e+02 1.876378e+02 -1.613926e+03)	2.194760e+03	(5.913896e+02 1.035441e+02 -1.631613e+03)
1.32          	T             	3.000000e+02	(4.930208e+02 1.876378e+02 -1.613926e+03)	2.196016e+03	(5.913896e+02 1.035441e+02 -1.631613e+03)
1.33          	T             	3.000000e+02	(4.930208e+02 1.876378e+02 -1.613926e+03)	2.197258e+03	(5.913896e+02 1.035441e+02 -1.631613e+03)
1.34          	T             	3.000000e+02	(4.930208e+02 1.876378e+02 -1.613926e+03)	2.198488e+03	(5.913896e+02 1.035441e+02 -1.631613e+03)
1.35          	T             	3.000000e+02	(4.930208e+02 1.876378e+02 -1.613926e+03)	2.199709e+03	(5.913896e+02 1.035441e+02 -1.631613e+03)
1.36          	T             	3.000000e+02	(4.930208e+02 1.876378e+02 -1.613926e+03)	2.200921e+03	(5.913896e+02 1.035441e+02 -1.631613e+03)
1.37          	T             	3.000000e+02	(4.930208e+02 1.876378e+02 -1.613926e+03)	2.202102e+03	(5.913896e+02 1.035441e+02 -1.631613e+03)
1.38          	T             	3.000000e+02	(4.930208e+02 1.876378e+02 -1.613926e+03)	2.203261e+03	(5.913896e+02 1.035441e+02 -1.631613e+03)
1.39          	T             	3.000000e+02	(4.930208e+02 1.876378e+02 -1.613926e+03)	2.204410e+03	(5.913896e+02 1.035441e+02 -1.631613e+03)
1.4           	T             	3.000000e+02	(4.930208e+02 1.876378e+02 -1.613926e+03)	2.205554e+03	(5.913896e+02 1.035441e+02 -1.631613e+03)
1.41          	T             	3.000000e+02	(4.930208e+02 1.876378e+02 -1.613926e+03)	2.206692e+03	(5.913896e+02 1.035441e+02 -1.631613e+03)
1.42          	T             	3.000000e+02	(4.930208e+02 1.876378e+02 -1.613926e+03)	2.207827e+03	(5.913896e+02 1.035441e+02 -1.631613e+03)
1.43          	T             	3.000000e+02	(4.930208e+02 1.876378e+02 -1.613926e+03)	2.208957e+03	(5.913896e+02 1.035441e+02 -1.631613e+03)
1.44          	T             	3.000000e+02	(4.930208e+02 1.876378e+02 -1.613926e+03)	2.210083e+03	(5.913896e+02 1.035441e+02 -1.631613e+03)
1.45          	T             	3.000000e+02	(4.930208e+02 1.876378e+02 -1.613926e+03)	2.211203e+03	(5.913896e+02 1.035441e+02 -1.631613e+03)
1.46          	T             	3.000000e+02	(4.930215e+02 1.876349e+02 -1.612056e+03)	2.212319e+03	(5.913896e+02 1.035441e+02 -1.631613e+03)
1.47          	T             	3.000000e+02	(4.930215e+02 1.876349e+02 -1.612056e+03)	2.213430e+03	(5.913896e+02 1.035441e+02 -1.631613e+03)
1.48          	T             	3.000000e+02	(4.930215e+02 1.876349e+02 -1.612056e+03)	2.214537e+03	(5.913896e+02 1.035441e+02 -1.631613e+03)
1.49          	T             	3.000000e+02	(4.930215e+02 1.876349e+02 -1.612056e+03)	2.215638e+03	(5.913896e+02 1.035441e+02 -1.631613e+03)
1.5           	T             	3.000000e+02	(5.015874e+02 1.891791e+02 -1.604881e+03)	2.216734e+03	(5.913896e+02 1.035441e+02 -1.631613e+03)
1.51          	T             	3.000000e+02	(4.806622e+02 1.956580e+02 -1.613460e+03)	2.217826e+03	(5.913896e+02 1.035441e+02 -1.631613e+03)
1.52          	T             	3.000000e+02	(4.806622e+02 1.956580e+02 -1.613460e+03)	2.218913e+03	(5.913896e+02 1.035441e+02 -1.631613e+03)
1.53          	T             	3.000000e+02	(4.806622e+02 1.956580e+02 -1.613460e+03)	2.219996e+03	(5.913896e+02 1.035441e+02 -1.631613e+03)
1.54          	T             	3.000000e+02	(4.806622e+02 1.956580e+02 -1.613460e+03)	2.221073e+03	(5.913896e+02 1.035441e+02 -1.631613e+03)
1.55          	T             	3.000000e+02	(4.806622e+02 1.956580e+02 -1.613460e+03)	2.222146e+03	(5.913896e+02 1.035441e+02 -1.631613e+03)
1.56          	T             	3.000000e+02	(4.806622e+02 1.956580e+02 -1.613460e+03)	2.223214e+03	(5.913896e+02 1.035441e+02 -1.631613e+03)
1.57          	T             	3.000000e+02	(5.015874e+02 1.891791e+02 -1.604881e+03)	2.224271e+03	(5.913896e+02 1.035441e+02 -1.631613e+03)
1.58          	T             	3.000000e+02	(4.860035e+02 1.815879e+02 -1.608299e+03)	2.225318e+03	(5.913896e+02 1.035441e+02 -1.631613e+03)
1.59          	T             	3.000000e+02	(5.015874e+02 1.891791e+02 -1.604881e+03)	2.226357e+03	(5.913896e+02 1.035441e+02 -1.631613e+03)
1.6           	T             	3.000000e+02	(4.718831e+02 1.939032e+02 -1.604007e+03)	2.227388e+03	(5.913896e+02 1.035441e+02 -1.631613e+03)
1.61          	T             	3.000000e+02	(5.015874e+02 1.891791e+02 -1.604881e+03)	2.228413e+03	(5.913896e+02 1.035441e+02 -1.631613e+03)
1.62          	T             	3.000000e+02	(5.015874e+02 1.891791e+02 -1.604881e+03)	2.229433e+03	(5.913896e+02 1.035441e+02 -1.631613e+03)
1.63          	T             	3.000000e+02	(5.015874e+02 1.891791e+02 -1.604881e+03)	2.230448e+03	(5.913896e+02 1.035441e+02 -1.631613e+03)
1.64          	T             	3.000000e+02	(4.774559e+02 1.705033e+02 -1.605177e+03)	2.231458e+03	(5.913896e+02 1.035441e+02 -1.631613e+03)
1.65          	T             	3.000000e+02	(4.774559e+02 1.705033e+02 -1.605177e+03)	2.232463e+03	(5.913896e+02 1.035441e+02 -1.631613e+03)
1.66          	T             	3.000000e+02	(4.774559e+02 1.705033e+02 -1.605177e+03)	2.233465e+03	(5.913896e+02 1.035441e+02 -1.631613e+03)
1.67          	T             	3.000000e+02	(4.774559e+02 1.705033e+02 -1.605177e+03)	2.234462e+03	(5.913896e+02 1.035441e+02 -1.631613e+03)
1.68          	T             	3.000000e+02	(4.774559e+02 1.705033e+02 -1.605177e+03)	2.235456e+03	(5.913896e+02 1.035441e+02 -1.631613e+03)
1.69          	T             	3.000000e+02	(4.774559e+02 1.705033e+02 -1.605177e+03)	2.236445e+03	(5.913896e+02 1.035441e+02 -1.631613e+03)
1.7           	T             	3.000000e+02	(5.015874e+02 1.891791e+02 -1.604881e+03)	2.237430e+03	(5.913896e+02 1.035441e+02 -1.631613e+03)
1.71          	T             	3.000000e+02	(5.015874e+02 1.891791e+02 -1.604881e+03)	2.238412e+03	(5.913896e+02 1.035441e+02 -1.631613e+03)
1.72          	T             	3.000000e+02	(4.985393e+02 2.027791e+02 -1.603893e+03)	2.239389e+03	(5.913896e+02 1.035441e+02 -1.631613e+03)
1.73          	T             	3.000000e+02	(4.774559e+02 1.705033e+02 -1.605177e+03)	2.240363e+03	(5.913896e+02 1.035441e+02 -1.631613e+03)
1.74          	T             	3.000000e+02	(4.771440e+02 1.897447e+02 -1.603890e+03)	2.241333e+03	(5.913896e+02 1.035441e+02 -1.631613e+03)
1.75          	T             	3.000000e+02	(5.015874e+02 1.891791e+02 -1.604881e+03)	2.242300e+03	(5.913896e+02 1.035441e+02 -1.631613e+03)
1.76          	T             	3.000000e+02	(4.771440e+02 1.897447e+02 -1.603890e+03)	2.243262e+03	(5.913896e+02 1.035441e+02 -1.631613e+03)
1.77          	T             	3.000000e+02	(4.888165e+02 1.749845e+02 -1.603568e+03)	2.244220e+03	(5.913896e+02 1.035441e+02 -1.631613e+03)
1.78          	T             	3.000000e+02	(4.771440e+02 1.897447e+02 -1.603890e+03)	2.245175e+03	(5.913896e+02 1.035441e+02 -1.631613e+03)
1.79          	T             	3.000000e+02	(5.015874e+02 1.891791e+02 -1.604881e+03)	2.246126e+03	(5.913896e+02 1.035441e+02 -1.631613e+03)
1.8           	T             	3.000000e+02	(5.015874e+02 1.891791e+02 -1.604881e+03)	2.247073e+03	(5.913896e+02 1.035441e+02 -1.631613e+03)
1.81          	T             	3.000000e+02	(4.985357e+02 2.013880e+02 -1.603914e+03)	2.248016e+03	(5.913896e+02 1.035441e+02 -1.631613e+03)
1.82          	T             	3.000000e+02	(4.860320e+02 1.936664e+02 -1.606444e+03)	2.249380e+03	(5.608058e+02 8.688979e+01 -1.603418e+03)
1.83          	T             	3.000000e+02	(4.985357e+02 2.013880e+02 -1.603914e+03)	2.252544e+03	(5.608058e+02 8.688979e+01 -1.603418e+03)
1.84          	T             	3.000000e+02	(4.755891e+02 1.926498e+02 -1.603890e+03)	2.255698e+03	(5.608058e+02 8.688979e+01 -1.603418e+03)
1.85          	T             	3.000000e+02	(4.755891e+02 1.926498e+02 -1.603890e+03)	2.258843e+03	(5.608058e+02 8.688979e+01 -1.603418e+03)
1.86          	T             	3.000000e+02	(4.985357e+02 2.013880e+02 -1.603914e+03)	2.261978e+03	(5.608058e+02 8.688979e+01 -1.603418e+03)
1.87          	T             	3.000000e+02	(4.529828e+02 1.639403e+02 -1.603772e+03)	2.265105e+03	(5.608058e+02 8.688979e+01 -1.603418e+03)
1.88          	T             	3.000000e+02	(4.985357e+02 2.013880e+02 -1.603914e+03)	2.268223e+03	(5.608058e+02 8.688979e+01 -1.603418e+03)
1.89          	T             	3.000000e+02	(4.752205e+02 1.925664e+02 -1.604071e+03)	2.271332e+03	(5.608058e+02 8.688979e+01 -1.603418e+03)
1.9           	T             	3.000000e+02	(4.985357e+02 2.013880e+02 -1.603914e+03)	2.274434e+03	(5.608058e+02 8.688979e+01 -1.603418e+03)
1.91          	T             	3.000000e+02	(4.755294e+02 1.940458e+02 -1.603904e+03)	2.277528e+03	(5.608058e+02 8.688979e+01 -1.603418e+03)
1.92          	T             	3.000000e+02	(4.722078e+02 1.942335e+02 -1.604461e+03)	2.280614e+03	(5.608058e+02 8.688979e+01 -1.603418e+03)
1.93          	T             	3.000000e+02	(4.755891e+02 1.926498e+02 -1.603890e+03)	2.283692e+03	(5.608058e+02 8.688979e+01 -1.603418e+03)
1.94          	T             	3.000000e+02	(4.752205e+02 1.925664e+02 -1.604071e+03)	2.286763e+03	(5.608058e+02 8.688979e+01 -1.603418e+03)
1.95          	T             	3.000000e+02	(4.752205e+02 1.925664e+02 -1.604071e+03)	2.289826e+03	(5.608058e+02 8.688979e+01 -1.603418e+03)
1.96          	T             	3.000000e+02	(4.752205e+02 1.925664e+02 -1.604071e+03)	2.292881e+03	(5.608058e+02 8.688979e+01 -1.603418e+03)
1.97          	T             	3.000000e+02	(4.755891e+02 1.926498e+02 -1.603890e+03)	2.295929e+03	(5.608058e+02 8.688979e+01 -1.603418e+03)
1.98          	T             	3.000000e+02	(4.752205e+02 1.925664e+02 -1.604071e+03)	2.298970e+03	(5.608058e+02 8.688979e+01 -1.603418e+03)
1.99          	T             	3.000000e+02	(4.755891e+02 1.926498e+02 -1.603890e+03)	2.302003e+03	(5.608058e+02 8.688979e+01 -1.603418e+03)
2             	T             	3.000000e+02	(4.488580e+02 1.808521e+02 -1.604222e+03)	2.305001e+03	(5.608058e+02 8.688979e+01 -1.603418e+03)
2.01          	T             	3.000000e+02	(4.488580e+02 1.808521e+02 -1.604222e+03)	2.307973e+03	(5.608058e+02 8.688979e+01 -1.603418e+03)
2.02          	T             	3.000000e+02	(4.488580e+02 1.808521e+02 -1.604222e+03)	2.310934e+03	(5.608058e+02 8.688979e+01 -1.603418e+03)
2.03          	T             	3.000000e+02	(4.739219e+02 1.944498e+02 -1.604184e+03)	2.313888e+03	(5.608058e+02 8.688979e+01 -1.603418e+03)
2.04          	T             	3.000000e+02	(4.488434e+02 1.809063e+02 -1.604673e+03)	2.316835e+03	(5.608058e+02 8.688979e+01 -1.603418e+03)
2.05          	T             	3.000000e+02	(4.488434e+02 1.809063e+02 -1.604673e+03)	2.319776e+03	(5.608058e+02 8.688979e+01 -1.603418e+03)
2.06          	T             	3.000000e+02	(4.722078e+02 1.942335e+02 -1.604461e+03)	2.322709e+03	(5.608058e+02 8.688979e+01 -1.603418e+03)
2.07          	T             	3.000000e+02	(4.722078e+02 1.942335e+02 -1.604461e+03)	2.325634e+03	(5.608058e+02 8.688979e+01 -1.603418e+03)
2.08          	T             	3.000000e+02	(4.488580e+02 1.808521e+02 -1.604222e+03)	2.328551e+03	(5.608058e+02 8.688979e+01 -1.603418e+03)
2.09          	T             	3.000000e+02	(4.488580e+02 1.808521e+02 -1.604222e+03)	2.331461e+03	(5.608058e+02 8.688979e+01 -1.603418e+03)
2.1           	T             	3.000000e+02	(4.488434e+02 1.809063e+02 -1.604673e+03)	2.334366e+03	(5.608058e+02 8.688979e+01 -1.603418e+03)
2.11          	T             	3.000000e+02	(4.488580e+02 1.808521e+02 -1.604222e+03)	2.337265e+03	(5.608058e+02 8.688979e+01 -1.603418e+03)
2.12          	T             	3.000000e+02	(4.488580e+02 1.808521e+02 -1.604222e+03)	2.340159e+03	(5.608058e+02 8.688979e+01 -1.603418e+03)
2.13          	T             	3.000000e+02	(4.488580e+02 1.808521e+02 -1.604222e+03)	2.343047e+03	(5.608058e+02 8.688979e+01 -1.603418e+03)